csid	mp	inchi	name	c	h	o	mol_wt	dou	Aromatic	OH	CO	CHO	COOH	COOR	ROR
60586	20.35	InChI=1S/C9H10O3/c1-2-12-8-6-4-3-5-7(8)9(10)11/h3-6H,2H2,1H3,(H,10,11)	2-ethoxybenzoic acid	9	10	3	166.17270000000002	5.0	1	0	0	0	1	0	1
6114	-111.35	InChI=1S/C2H4O/c1-2-3-1/h1-2H2	oxirane	2	4	1	44.05216	1.0	0	0	0	0	0	0	1
7103	54.65	InChI=1S/C10H14O2/c1-10(2,3)7-4-5-8(11)9(12)6-7/h4-6,11-12H,1-3H3	4-tert-butylcatechol	10	14	2	166.21616	4.0	1	1	0	0	0	0	0
7559	-87.18	InChI=1S/C3H4O/c1-2-3-4/h2-3H,1H2	acrolein	3	4	1	56.06286	2.0	0	0	0	1	0	0	0
7790	60.6	InChI=1S/C3H6O3/c1-4-2-6-3-5-1/h1-3H2	1,3,5-trioxane	3	6	3	90.07674	1.0	0	0	0	0	0	0	1
7626	-86.4	InChI=1S/C6H14O/c1-5(2)7-6(3)4/h5-6H,1-4H3	diisopropyl_ether	6	14	1	102.17436	0.0	0	0	0	0	0	0	1
11763	-62.4	InChI=1S/C6H8O/c1-5-3-4-6(2)7-5/h3-4H,1-2H3	2,5-dimethylfuran	6	8	1	96.12671999999999	3.0	1	0	0	0	0	0	0
11029	-41.6	InChI=1S/C7H16O/c1-3-5-7(8)6-4-2/h7-8H,3-6H2,1-2H3	4-heptanol	7	16	1	116.20094	0.0	0	1	0	0	0	0	0
7358	-67.4	InChI=1S/C22H42O4/c1-5-9-13-19(7-3)17-25-21(23)15-11-12-16-22(24)26-18-20(8-4)14-10-6-2/h19-20H,5-18H2,1-4H3	bis(2-ethylhexyl) adipate	22	42	4	370.56488	2.0	0	0	0	0	0	1	0
59546	75.4	InChI=1S/C15H14O3/c1-18-14(16)15(17,12-8-4-2-5-9-12)13-10-6-3-7-11-13/h2-11,17H,1H3	methyl benzilate	15	14	3	242.26866	9.0	1	1	0	0	0	1	0
76852	34.4	InChI=1S/C12H10O2/c1-14-12-7-6-9(8-13)10-4-2-3-5-11(10)12/h2-8H,1H3	4-methoxy-1-naphthaldehyde	12	10	2	186.20579999999998	8.0	1	0	0	1	0	0	1
13033	42.4	InChI=1S/C7H8O3/c1-10-6-4-2-3-5(8)7(6)9/h2-4,8-9H,1H3	3-methoxycatechol	7	8	3	140.13542	4.0	1	1	0	0	0	0	1
7732	-115.27	InChI=1S/C4H8O/c1-3-5-4-2/h3H,1,4H2,2H3	ethyl vinyl ether	4	8	1	72.10531999999999	1.0	0	0	0	0	0	0	1
7909	39.55	InChI=1S/C19H38O2/c1-3-4-5-6-7-8-9-10-11-12-13-14-15-16-17-18-19(20)21-2/h3-18H2,1-2H3	methyl stearate	19	38	2	298.50302	1.0	0	0	0	0	0	1	0
8141	-51.244	InChI=1S/C5H8O/c6-5-3-1-2-4-5/h1-4H2	cyclopentanone	5	8	1	84.11601999999999	2.0	0	0	1	0	0	0	0
7463	-73.3	InChI=1S/C5H10O2/c1-3-5(6)7-4-2/h3-4H2,1-2H3	ethyl propionate	5	10	2	102.13090000000001	1.0	0	0	0	0	0	1	0
8568	-80.3	InChI=1S/C8H16O2/c1-3-4-5-6-7-10-8(2)9/h3-7H2,1-2H3	n-hexyl acetate	8	16	2	144.21063999999998	1.0	0	0	0	0	0	1	0
6313	-65.23	InChI=1S/C4H8O/c1-4(2)3-5/h3-4H,1-2H3	isobutyraldehyde	4	8	1	72.10531999999999	1.0	0	0	0	1	0	0	0
10034	98.5	InChI=1S/C16H32O3/c17-15-13-11-9-7-5-3-1-2-4-6-8-10-12-14-16(18)19/h17H,1-15H2,(H,18,19)	16-hydroxyhexadecanoic acid	16	32	3	272.42228	1.0	0	1	0	0	1	0	0
3637837	95.5	InChI=1S/C9H8O2/c1-2-7-4-3-5-8(6-7)9(10)11/h2-6H,1H2,(H,10,11)	3-vinylbenzoic acid	9	8	2	148.15782	6.0	1	0	0	0	1	0	0
68265	104.5	InChI=1S/C6H8O4/c1-2-3-4(5(7)8)6(9)10/h2,4H,1,3H2,(H,7,8)(H,9,10)	allylmalonic acid	6	8	4	144.12372	3.0	0	0	0	0	1	0	0
7893	-2.5	InChI=1S/C11H22O/c1-2-3-4-5-6-7-8-9-10-11-12/h2,12H,1,3-11H2	10-undecen-1-ol	11	22	1	170.29138	1.0	0	1	0	0	0	0	0
64111	98.5	InChI=1S/C7H6O3/c8-4-5-3-6(9)1-2-7(5)10/h1-4,9-10H	2,5-dihydroxybenzaldehyde	7	6	3	138.11954	5.0	1	1	0	1	0	0	0
9964	90.5	InChI=1S/C8H10O2/c9-6-5-7-1-3-8(10)4-2-7/h1-4,9-10H,5-6H2	2-(4-hydroxyphenyl)ethanol	8	10	2	138.16299999999998	4.0	1	1	0	0	0	0	0
68837	181.5	InChI=1S/C8H8O3/c9-5-6-1-3-7(4-2-6)8(10)11/h1-4,9H,5H2,(H,10,11)	4-(hydroxymethyl)benzoic acid	8	8	3	152.14612	5.0	1	1	0	0	1	0	0
6438	270.5	InChI=1S/C12H6O3/c13-11-8-5-1-3-7-4-2-6-9(10(7)8)12(14)15-11/h1-6H	1,8-naphthalic anhydride	12	6	3	198.17304000000001	10.0	1	0	0	0	0	0	0
11421	65.5	InChI=1S/C8H6O3/c9-7(8(10)11)6-4-2-1-3-5-6/h1-5H,(H,10,11)	phenylglyoxylic acid	8	6	3	150.13024000000001	6.0	1	0	1	0	1	0	0
8045	39.5	InChI=1S/C13H10O2/c14-12-9-5-4-8-11(12)13(15)10-6-2-1-3-7-10/h1-9,14H	2-hydroxybenzophenone	13	10	2	198.21649999999997	9.0	1	1	1	0	0	0	0
65703	117.5	InChI=1S/C10H10O3/c11-9(6-7-10(12)13)8-4-2-1-3-5-8/h1-5H,6-7H2,(H,12,13)	3-benzoylpropionic acid	10	10	3	178.1834	6.0	1	0	1	0	1	0	0
58568	119.5	InChI=1S/C15H10O/c16-15-13(11-7-3-1-4-8-11)14(15)12-9-5-2-6-10-12/h1-10H	2,3-diphenyl-2-cyclopropen-1-one	15	10	1	206.2389	11.0	1	0	0	0	0	0	0
67593	100.5	InChI=1S/C19H14O/c20-19(17-9-5-2-6-10-17)18-13-11-16(12-14-18)15-7-3-1-4-8-15/h1-14H	4-benzoylbiphenyl	19	14	1	258.31346	13.0	1	0	1	0	0	0	0
69150	59.5	InChI=1S/C13H10O/c14-10-11-6-8-13(9-7-11)12-4-2-1-3-5-12/h1-10H	biphenyl-4-carboxaldehyde	13	10	1	182.21749999999997	9.0	1	0	0	1	0	0	0
68709	49.5	InChI=1S/C13H12O/c14-10-12-8-4-5-9-13(12)11-6-2-1-3-7-11/h1-9,14H,10H2	2-biphenylmethanol	13	12	1	184.23337999999998	8.0	1	1	0	0	0	0	0
21159439	83.5	InChI=1S/C13H12O/c14-13-8-6-12(7-9-13)10-11-4-2-1-3-5-11/h1-9,14H,10H2	4-benzylphenol	13	12	1	184.23337999999998	8.0	1	1	0	0	0	0	0
62525	127.5	InChI=1S/C20H18O2/c1-3-7-17(8-4-1)15-21-19-11-13-20(14-12-19)22-16-18-9-5-2-6-10-18/h1-14H,15-16H2	1,4-dibenzyloxybenzene	20	18	2	290.35492	12.0	1	0	0	0	0	0	1
63533	39.5	InChI=1S/C13H12O/c1-3-7-12(8-4-1)11-14-13-9-5-2-6-10-13/h1-10H,11H2	benzyl phenyl ether	13	12	1	184.23337999999998	8.0	1	0	0	0	0	0	1
6753	175.5	InChI=1S/C13H8O2/c14-13-9-5-1-3-7-11(9)15-12-8-4-2-6-10(12)13/h1-8H	xanthone	13	8	2	196.20062	10.0	1	0	0	0	0	0	0
12274	142.5	InChI=1S/C9H6O3/c10-8-5-6-3-1-2-4-7(6)9(11)12-8/h1-4H,5H2	homophthalic anhydride	9	6	3	162.14094	7.0	1	0	0	0	0	0	0
13848793	70.5	InChI=1S/C9H6O2/c10-9-6-5-7-3-1-2-4-8(7)11-9/h1-6H	coumarin	9	6	2	146.14194	7.0	1	0	0	0	0	0	0
10273	7.5	InChI=1S/C10H10O/c11-10-7-3-5-8-4-1-2-6-9(8)10/h1-2,4,6H,3,5,7H2	1-tetralone	10	10	1	146.1854	6.0	1	0	1	0	0	0	0
6621	74.5	InChI=1S/C8H6O2/c9-8-7-4-2-1-3-6(7)5-10-8/h1-4H,5H2	phthalide	8	6	2	134.13124	6.0	1	0	0	0	0	1	0
24722	162.5	InChI=1S/C20H24O6/c1-2-6-18-17(5-1)23-13-9-21-11-15-25-19-7-3-4-8-20(19)26-16-12-22-10-14-24-18/h1-8H,9-16H2	dibenzo-18-crown-6	20	24	6	360.39856	9.0	1	0	0	0	0	0	1
75956	79.5	InChI=1S/C14H20O5/c1-2-4-14-13(3-1)18-11-9-16-7-5-15-6-8-17-10-12-19-14/h1-4H,5-12H2	benzo-15-crown-5	14	20	5	268.3036	5.0	1	0	0	0	0	0	1
5966	61.5	InChI=1S/C11H8O/c12-8-9-5-6-10-3-1-2-4-11(10)7-9/h1-8H	2-naphthaldehyde	11	8	1	156.18022000000002	8.0	1	0	0	1	0	0	0
12690	60.5	InChI=1S/C12H22O/c13-12-10-8-6-4-2-1-3-5-7-9-11-12/h1-11H2	cyclododecanone	12	22	1	182.30208	2.0	0	0	1	0	0	0	0
61810	77.5	InChI=1S/C4H4O2/c1-2-3-4(5)6/h1H3,(H,5,6)	2-butynoic acid	4	4	2	84.07256	3.0	0	0	0	0	1	0	0
15435	69.5	InChI=1S/C10H12O3/c1-7(11)10-8(12-2)5-4-6-9(10)13-3/h4-6H,1-3H3	2',6'-dimethoxyacetophenone	10	12	3	180.19928	5.0	1	0	1	0	0	0	1
64152	19.5	InChI=1S/C10H12O3/c1-7(11)9-6-8(12-2)4-5-10(9)13-3/h4-6H,1-3H3	2',5'-dimethoxyacetophenone	10	12	3	180.19928	5.0	1	0	1	0	0	0	1
74935	53.5	InChI=1S/C10H10O3/c1-7(11)9-3-5-10(6-4-9)13-8(2)12/h3-6H,1-2H3	4'-acetoxyacetophenone	10	10	3	178.1834	6.0	1	0	1	0	0	1	0
63208	40.5	InChI=1S/C10H12O3/c1-7(11)9-5-4-8(12-2)6-10(9)13-3/h4-6H,1-3H3	2',4'-dimethoxyacetophenone	10	12	3	180.19928	5.0	1	0	1	0	0	0	1
62618	12.5	InChI=1S/C8H14O4/c1-7(9)11-5-3-4-6-12-8(2)10/h3-6H2,1-2H3	1,4-diacetoxybutane	8	14	4	174.19276	2.0	0	0	0	0	0	1	0
12336	66.5	InChI=1S/C14H20O2/c1-13(2,3)10-7-9(15)8-11(12(10)16)14(4,5)6/h7-8H,1-6H3	2,6-di-tert-butyl-p-benzoquinone	14	20	2	220.3066	5.0	0	0	1	0	0	0	0
21105932	27.5	InChI=1S/C10H14O/c1-8(2)10-5-3-9(7-11)4-6-10/h3-6,8,11H,7H2,1-2H3	4-isopropylbenzyl alcohol	10	14	1	150.21716	4.0	1	1	0	0	0	0	0
11781	86.5	InChI=1S/C6H10O4/c1-4(2-5(7)8)3-6(9)10/h4H,2-3H2,1H3,(H,7,8)(H,9,10)	3-methylglutaric acid	6	10	4	146.1396	2.0	0	0	0	0	1	0	0
70865	189.5	InChI=1S/C5H10O4/c1-5(2-6,3-7)4(8)9/h6-7H,2-3H2,1H3,(H,8,9)	2,2-bis(hydroxymethyl)propionic acid	5	10	4	134.12890000000002	1.0	0	1	0	0	1	0	0
10248	72.5	InChI=1S/C9H12O/c1-6-4-7(2)9(10)8(3)5-6/h4-5,10H,1-3H3	2,4,6-trimethylphenol	9	12	1	136.19058	4.0	1	1	0	0	0	0	0
62217	223.5	InChI=1S/C22H18O4/c1-13-11-15(7-9-19(13)23)22(16-8-10-20(24)14(2)12-16)18-6-4-3-5-17(18)21(25)26-22/h3-12,23-24H,1-2H3	o-cresolphthalein	22	18	4	346.37432	14.0	1	1	0	0	0	1	0
5584	177.5	InChI=1S/C8H8O3/c1-5-2-3-6(8(10)11)7(9)4-5/h2-4,9H,1H3,(H,10,11)	4-methylsalicylic acid	8	8	3	152.14612	5.0	1	1	0	0	1	0	0
217532	92.5	InChI=1S/C9H10O2/c1-7-2-4-8(5-3-7)6-9(10)11/h2-5H,6H2,1H3,(H,10,11)	p-tolylacetic acid	9	10	2	150.1737	5.0	1	0	0	0	1	0	0
63512	140.5	InChI=1S/C9H10O3/c1-7-2-4-8(5-3-7)12-6-9(10)11/h2-5H,6H2,1H3,(H,10,11)	4-methylphenoxyacetic acid	9	10	3	166.17270000000002	5.0	1	0	0	0	1	0	1
11576	165.5	InChI=1S/C9H10O2/c1-6-3-4-8(9(10)11)5-7(6)2/h3-5H,1-2H3,(H,10,11)	3,4-dimethylbenzoic acid	9	10	2	150.1737	5.0	1	0	0	0	1	0	0
21105867	1.5	InChI=1S/C10H14O/c1-7(2)9-5-4-8(3)10(11)6-9/h4-7,11H,1-3H3	5-isopropyl-2-methylphenol	10	14	1	150.21716	4.0	1	1	0	0	0	0	0
11289	145.5	InChI=1S/C9H10O2/c1-6-4-3-5-8(7(6)2)9(10)11/h3-5H,1-2H3,(H,10,11)	2,3-dimethylbenzoic acid	9	10	2	150.1737	5.0	1	0	0	0	1	0	0
72148	99.5	InChI=1S/C9H10O3/c1-2-8(11)7-4-3-6(10)5-9(7)12/h3-5,10,12H,2H2,1H3	2',4'-dihydroxypropiophenone	9	10	3	166.17270000000002	5.0	1	1	1	0	0	0	0
11263	113.5	InChI=1S/C5H8O4/c1-2-3(4(6)7)5(8)9/h3H,2H2,1H3,(H,6,7)(H,8,9)	ethylmalonic acid	5	8	4	132.11302	2.0	0	0	0	0	1	0	0
18924	43.5	InChI=1S/C16H26O/c1-8-11-9-12(15(2,3)4)14(17)13(10-11)16(5,6)7/h9-10,17H,8H2,1-7H3	2,6-di-tert-butyl-4-ethylphenol	16	26	1	234.37663999999998	4.0	1	1	0	0	0	0	0
121262	142.5	InChI=1S/C10H12O2/c1-2-3-8-4-6-9(7-5-8)10(11)12/h4-7H,2-3H2,1H3,(H,11,12)	4-n-propylbenzoic acid	10	12	2	164.20028	5.0	1	0	0	0	1	0	0
67479	-40.5	InChI=1S/C12H22O3/c1-3-5-7-9-11(13)15-12(14)10-8-6-4-2/h3-10H2,1-2H3	hexanoic anhydride	12	22	3	214.30007999999998	2.0	0	0	0	0	0	0	0
25119	23.5	InChI=1S/C11H16O/c1-2-3-4-5-10-6-8-11(12)9-7-10/h6-9,12H,2-5H2,1H3	4-n-pentylphenol	11	16	1	164.24374	4.0	1	1	0	0	0	0	0
10425	52.5	InChI=1S/C17H34O/c1-3-5-7-9-11-13-15-17(18)16-14-12-10-8-6-4-2/h3-16H2,1-2H3	9-heptadecanone	17	34	1	254.45085999999998	1.0	0	0	1	0	0	0	0
23643	14.5	InChI=1S/C13H26O/c1-2-3-4-5-6-7-8-9-10-11-12-13-14/h13H,2-12H2,1H3	tridecanal	13	26	1	198.34453999999997	1.0	0	0	0	1	0	0	0
29024	18.5	InChI=1S/C15H30O2/c1-3-4-5-6-7-8-9-10-11-12-13-14-15(16)17-2/h3-14H2,1-2H3	methyl tetradecanoate	15	30	2	242.3967	1.0	0	0	0	0	0	1	0
7889	30.5	InChI=1S/C17H34O2/c1-3-4-5-6-7-8-9-10-11-12-13-14-15-16-17(18)19-2/h3-16H2,1-2H3	methyl palmitate	17	34	2	270.44986	1.0	0	0	0	0	0	1	0
13837584	-10.5	InChI=1S/C18H34O4/c1-3-5-15-21-17(19)13-11-9-7-8-10-12-14-18(20)22-16-6-4-2/h3-16H2,1-2H3	di-n-butyl sebacate	18	34	4	314.45856	2.0	0	0	0	0	0	1	0
11655	-27.5	InChI=1S/C9H12O/c1-2-8-10-9-6-4-3-5-7-9/h3-7H,2,8H2,1H3	phenyl_propyl_ether	9	12	1	136.19058	4.0	1	0	0	0	0	0	1
72680	28.5	InChI=1S/C10H16O6/c1-4-14-8(11)7(9(12)15-5-2)10(13)16-6-3/h7H,4-6H2,1-3H3	triethyl methanetricarboxylate	10	16	6	232.22804	3.0	0	0	0	0	0	1	0
11972	44.5	InChI=1S/C12H14O4/c1-3-15-11(13)9-5-7-10(8-6-9)12(14)16-4-2/h5-8H,3-4H2,1-2H3	diethyl terephthalate	12	14	4	222.23556000000002	6.0	1	0	0	0	0	1	0
64377	36.5	InChI=1S/C25H28O3/c1-4-27-22-15-13-21(14-16-22)25(2,3)19-26-18-20-9-8-12-24(17-20)28-23-10-6-5-7-11-23/h5-17H,4,18-19H2,1-3H3	1-{[2-(4-ethoxyphenyl)-2-methylpropoxy]methyl}-3-phenoxybenzene	25	28	3	376.48682	12.0	1	0	0	0	0	0	1
11628	136.5	InChI=1S/C9H10O3/c1-2-12-8-5-3-4-7(6-8)9(10)11/h3-6H,2H2,1H3,(H,10,11)	3-ethoxybenzoic acid	9	10	3	166.17270000000002	5.0	1	0	0	0	1	0	1
14760	221.5	InChI=1S/C9H8O4/c1-13-9(12)7-4-2-6(3-5-7)8(10)11/h2-5H,1H3,(H,10,11)	mono-methyl_terephthalate	9	8	4	180.15582	6.0	1	0	0	0	1	1	0
9856	144.5	InChI=1S/C10H12O5/c1-13-7-5-9(15-3)8(14-2)4-6(7)10(11)12/h4-5H,1-3H3,(H,11,12)	2,4,5-trimethoxybenzoic acid	10	12	5	212.19728	5.0	1	0	0	0	1	0	1
21159597	42.5	InChI=1S/C10H12O4/c1-12-8-4-7(10(11)14-3)5-9(6-8)13-2/h4-6H,1-3H3	methyl 3,5-dimethoxybenzoate	10	12	4	196.19828	5.0	1	0	0	0	0	1	1
8333	112.5	InChI=1S/C9H10O4/c1-12-7-3-6(5-10)4-8(13-2)9(7)11/h3-5,11H,1-2H3	syringaldehyde	9	10	4	182.17170000000002	5.0	1	1	0	1	0	0	1
67282	195.5	InChI=1S/C9H10O5/c1-13-7-4-5(9(11)12)3-6(10)8(7)14-2/h3-4,10H,1-2H3,(H,11,12)	5-hydroxy-3,4-dimethoxybenzoic acid	9	10	5	198.1707	5.0	1	1	0	0	1	0	1
21111758	-7.5	InChI=1S/C9H10O2/c1-7(10)8-4-3-5-9(6-8)11-2/h3-6H,1-2H3	3'-methoxyacetophenone	9	10	2	150.1737	5.0	1	0	1	0	0	0	1
63180	89.5	InChI=1S/C7H8O3/c1-10-7-4-5(8)2-3-6(7)9/h2-4,8-9H,1H3	2-methoxyhydroquinone	7	8	3	140.13542	4.0	1	1	0	0	0	0	1
2673	148.5	InChI=1S/C11H10O4/c1-13-7-5-9(14-2)8-3-4-11(12)15-10(8)6-7/h3-6H,1-2H3	5,7-dimethoxycoumarin	11	10	4	206.19310000000002	7.0	1	0	0	0	0	0	1
6872	97.5	InChI=1S/C10H12O4/c1-13-8-4-3-7(6-10(11)12)5-9(8)14-2/h3-5H,6H2,1-2H3,(H,11,12)	3,4-dimethoxyphenylacetic acid	10	12	4	196.19828	5.0	1	0	0	0	1	0	1
13490	78.5	InChI=1S/C11H12O2/c1-13-9-5-6-10-8(7-9)3-2-4-11(10)12/h5-7H,2-4H2,1H3	6-methoxy-1-tetralone	11	12	2	176.21098	6.0	1	0	1	0	0	0	1
63328	151.5	InChI=1S/C8H8O4/c1-12-6-4-2-3-5(7(6)9)8(10)11/h2-4,9H,1H3,(H,10,11)	2-hydroxy-3-methoxybenzoic acid	8	8	4	168.14512	5.0	1	1	0	0	1	0	1
62682	136.5	InChI=1S/C9H6O2/c10-9(11)7-6-8-4-2-1-3-5-8/h1-5H,(H,10,11)	phenylpropiolic acid	9	6	2	146.14194	7.0	1	0	0	0	1	0	0
71672	83.5	InChI=1S/C12H10O2/c1-14-12-7-6-9-4-2-3-5-10(9)11(12)8-13/h2-8H,1H3	2-methoxy-1-naphthaldehyde	12	10	2	186.20579999999998	8.0	1	0	0	1	0	0	1
1446	225.5	InChI=1S/C7H6O4/c8-4-1-2-5(7(10)11)6(9)3-4/h1-3,8-9H,(H,10,11)	2,4-dihydroxybenzoic_acid	7	6	4	154.11854	5.0	1	1	0	0	1	0	0
12213	128.67	InChI=1S/C12H22O4/c13-11(14)9-7-5-3-1-2-4-6-8-10-12(15)16/h1-10H2,(H,13,14)(H,15,16)	dodecanedioic acid	12	22	4	230.29908	2.0	0	0	0	0	1	0	0
13839553	-26.57	InChI=1S/C3H8O2/c4-2-1-3-5/h4-5H,1-3H2	1,3-propanediol	3	8	2	76.09362	0.0	0	1	0	0	0	0	0
7634	119.5	InChI=1S/C4H4O3/c5-3-1-2-4(6)7-3/h1-2H2	succinic anhydride	4	4	3	100.07156	3.0	0	0	0	0	0	0	0
11580	174.33	InChI=1S/C8H6O3/c9-5-6-2-1-3-7(4-6)8(10)11/h1-5H,(H,10,11)	3-carboxybenzaldehyde	8	6	3	150.13024000000001	6.0	1	0	0	1	1	0	0
62582	57.67	InChI=1S/C8H10O2/c9-5-7-2-1-3-8(4-7)6-10/h1-4,9-10H,5-6H2	1,3-benzenedimethanol	8	10	2	138.16299999999998	4.0	1	1	0	0	0	0	0
7142	202.33	InChI=1S/C7H6O3/c8-6-3-1-2-5(4-6)7(9)10/h1-4,8H,(H,9,10)	3-hydroxybenzoic acid	7	6	3	138.11954	5.0	1	1	0	0	1	0	0
13859497	36.66666667	InChI=1S/C8H6O3/c9-4-6-1-2-7-8(3-6)11-5-10-7/h1-4H,5H2	piperonal	8	6	3	150.13024000000001	6.0	1	0	0	1	0	0	1
62362	198.67	InChI=1S/C14H10O3/c15-13(10-4-2-1-3-5-10)11-6-8-12(9-7-11)14(16)17/h1-9H,(H,16,17)	4-benzoylbenzoic acid	14	10	3	226.2262	10.0	1	0	1	0	1	0	0
12307	55.33	InChI=1S/C13H16O/c14-13(11-7-3-1-4-8-11)12-9-5-2-6-10-12/h1,3-4,7-8,12H,2,5-6,9-10H2	cyclohexyl phenyl ketone	13	16	1	188.26513999999997	6.0	1	0	1	0	0	0	0
21105876	3.53	InChI=1S/C14H14O/c1-3-7-13(8-4-1)11-15-12-14-9-5-2-6-10-14/h1-10H,11-12H2	dibenzyl ether	14	14	1	198.25996	8.0	1	0	0	0	0	0	1
6586	161.33	InChI=1S/C11H8O2/c12-11(13)10-7-3-5-8-4-1-2-6-9(8)10/h1-7H,(H,12,13)	1-naphthoic acid	11	8	2	172.17922000000002	8.0	1	0	0	0	1	0	0
175	-94.6	InChI=1S/C3H6O/c1-3(2)4/h1-2H3	acetone	3	6	1	58.07874	1.0	0	0	1	0	0	0	0
306959	88.33	InChI=1S/C14H12O2/c1-11(15)16-14-9-7-13(8-10-14)12-5-3-2-4-6-12/h2-10H,1H3	4-acetoxybiphenyl	14	12	2	212.24308	9.0	1	0	0	0	0	1	0
21109330	43.33	InChI=1S/C6H14O2/c1-5(2,7)6(3,4)8/h7-8H,1-4H3	pinacol, anhydrous	6	14	2	118.17336	0.0	0	1	0	0	0	0	0
11472	7.67	InChI=1S/C11H14O3/c1-11(2,3)14-13-10(12)9-7-5-4-6-8-9/h4-8H,1-3H3	tert-butyl peroxybenzoate	11	14	3	194.22586	5.0	1	0	0	0	0	0	0
7073	-80.57	InChI=1S/C8H16O2/c1-6(2)5-10-8(9)7(3)4/h6-7H,5H2,1-4H3	isobutyl isobutyrate	8	16	2	144.21063999999998	1.0	0	0	0	0	0	1	0
66464	36.67	InChI=1S/C6H12O/c1-6(7)4-2-3-5-6/h7H,2-5H2,1H3	1-methylcyclopentanol	6	12	1	100.15848	1.0	0	1	0	0	0	0	0
11063	25.67	InChI=1S/C7H14O/c1-7(8)5-3-2-4-6-7/h8H,2-6H2,1H3	1-methylcyclohexanol	7	14	1	114.18506	1.0	0	1	0	0	0	0	0
62289	59.0	InChI=1S/C9H10O4/c1-5-4-6(10)8(12-2)9(13-3)7(5)11/h4H,1-3H3	2,3-dimethoxy-5-methyl-1,4-benzoquinone	9	10	4	182.17170000000002	5.0	0	0	1	0	0	0	1
72054	39.67	InChI=1S/C9H12O2/c1-7-8(10-2)5-4-6-9(7)11-3/h4-6H,1-3H3	2,6-dimethoxytoluene	9	12	2	152.18958	4.0	1	0	0	0	0	0	1
6983	128.67	InChI=1S/C7H8O2/c1-5-4-6(8)2-3-7(5)9/h2-4,8-9H,1H3	2-methylhydroquinone	7	8	2	124.13642	4.0	1	1	0	0	0	0	0
3345	61.33	InChI=1S/C15H22O3/c1-11-6-7-12(2)13(10-11)18-9-5-8-15(3,4)14(16)17/h6-7,10H,5,8-9H2,1-4H3,(H,16,17)	gemfibrozil	15	22	3	250.33218	5.0	1	0	0	0	1	0	1
11056	-102.67	InChI=1S/C6H14O/c1-4-5-6(2,3)7/h7H,4-5H2,1-3H3	2-methyl-2-pentanol	6	14	1	102.17436	0.0	0	1	0	0	0	0	0
12060	21.67	InChI=1S/C9H12O/c1-2-3-8-4-6-9(10)7-5-8/h4-7,10H,2-3H2,1H3	4-n-propylphenol	9	12	1	136.19058	4.0	1	1	0	0	0	0	0
7883	-5.33	InChI=1S/C10H20O/c1-2-3-4-5-6-7-8-9-10-11/h10H,2-9H2,1H3	decanal	10	20	1	156.2648	1.0	0	0	0	1	0	0	0
13249	52.43	InChI=1S/C15H30O2/c1-2-3-4-5-6-7-8-9-10-11-12-13-14-15(16)17/h2-14H2,1H3,(H,16,17)	pentadecanoic acid	15	30	2	242.3967	1.0	0	0	0	0	1	0	0
7917	39.5	InChI=1S/C14H30O/c1-2-3-4-5-6-7-8-9-10-11-12-13-14-15/h15H,2-14H2,1H3	1-tetradecanol	14	30	1	214.387	0.0	0	1	0	0	0	0	0
932	-15.5	InChI=1S/C8H18O/c1-2-3-4-5-6-7-8-9/h9H,2-8H2,1H3	1-octanol	8	18	1	130.22752	0.0	0	1	0	0	0	0	0
21159425	7.5	InChI=1S/C10H12O3/c1-3-13-10(11)8-4-6-9(12-2)7-5-8/h4-7H,3H2,1-2H3	ethyl 4-methoxybenzoate	10	12	3	180.19928	5.0	1	0	0	0	0	1	1
13865630	-20.67	InChI=1S/C8H14O4/c1-3-11-7(9)5-6-8(10)12-4-2/h3-6H2,1-2H3	diethyl succinate	8	14	4	174.19276	2.0	0	0	0	0	0	1	0
67466	43.67	InChI=1S/C10H14O2/c1-3-11-9-7-5-6-8-10(9)12-4-2/h5-8H,3-4H2,1-2H3	1,2-diethoxybenzene	10	14	2	166.21616	4.0	1	0	0	0	0	0	1
21106583	-44.33	InChI=1S/C8H18O3/c1-3-9-5-7-11-8-6-10-4-2/h3-8H2,1-2H3	diethylene glycol diethyl ether	8	18	3	162.22552000000002	0.0	0	0	0	0	0	0	1
14559	60.67	InChI=1S/C9H8O3/c1-12-9(11)8-4-2-7(6-10)3-5-8/h2-6H,1H3	methyl 4-formylbenzoate	9	8	3	164.15681999999998	6.0	1	0	0	1	0	1	0
19331	113.67	InChI=1S/C10H12O4/c1-12-8-5-10(14-3)9(13-2)4-7(8)6-11/h4-6H,1-3H3	2,4,5-trimethoxybenzaldehyde	10	12	4	196.19828	5.0	1	0	0	1	0	0	1
13876103	-9.37	InChI=1S/C10H12O2/c1-3-4-8-5-6-9(11)10(7-8)12-2/h3,5-7,11H,1,4H2,2H3	eugenol	10	12	2	164.20028	5.0	1	1	0	0	0	0	1
56139	114.33	InChI=1S/C8H10O3/c1-11-8-4-6(5-9)2-3-7(8)10/h2-4,9-10H,5H2,1H3	4-hydroxy-3-methoxybenzyl alcohol	8	10	3	154.16199999999998	4.0	1	1	0	0	0	0	1
21108577	49.67	InChI=1S/C9H10O3/c1-11-8-5-3-7(4-6-8)9(10)12-2/h3-6H,1-2H3	methyl 4-methoxybenzoate	9	10	3	166.17270000000002	5.0	1	0	0	0	0	1	1
21111781	37.5	InChI=1S/C8H8O2/c1-10-8-5-3-2-4-7(8)6-9/h2-6H,1H3	2-methoxybenzaldehyde	8	8	2	136.14712	5.0	1	0	0	1	0	0	1
21170543	-52.53	InChI=1S/C8H10O/c1-9-7-8-5-3-2-4-6-8/h2-6H,7H2,1H3	benzyl methyl ether	8	10	1	122.16399999999999	4.0	1	0	0	0	0	0	1
8058	42.4	InChI=1S/C13H10O3/c14-12-9-5-4-8-11(12)13(15)16-10-6-2-1-3-7-10/h1-9,14H	phenyl salicylate	13	10	3	214.21549999999996	9.0	1	1	0	0	0	1	0
63211	120.33333329999999	InChI=1S/C10H12O4/c1-12-7-4-9(13-2)8(6-11)10(5-7)14-3/h4-6H,1-3H3	2,4,6-trimethoxybenzaldehyde	10	12	4	196.19828	5.0	1	0	0	1	0	0	1
123	117.33333329999999	InChI=1S/C7H6O2/c8-5-6-1-3-7(9)4-2-6/h1-5,9H	4-hydroxybenzaldehyde	7	6	2	122.12054	5.0	1	1	0	1	0	0	0
21106900	114.5	InChI=1S/C9H10O3/c1-6(10)7-3-4-8(11)9(5-7)12-2/h3-5,11H,1-2H3	4'-hydroxy-3'-methoxyacetophenone	9	10	3	166.17270000000002	5.0	1	1	1	0	0	0	1
10025	143.5	InChI=1S/C8H14O4/c9-7(10)5-3-1-2-4-6-8(11)12/h1-6H2,(H,9,10)(H,11,12)	suberic acid	8	14	4	174.19276	2.0	0	0	0	0	1	0	0
6333	13.0	InChI=1S/C3H4O2/c1-2-3(4)5/h2H,1H2,(H,4,5)	acrylic acid	3	4	2	72.06186	2.0	0	0	0	0	1	0	0
4878	110.75	InChI=1S/C6H6O2/c7-5-2-1-3-6(8)4-5/h1-4,7-8H	resorcinol	6	6	2	110.10984	4.0	1	1	0	0	0	0	0
9824	83.7525	InChI=1S/C13H8O/c14-13-11-7-3-1-5-9(11)10-6-2-4-8-12(10)13/h1-8H	9-fluorenone	13	8	1	180.20162	10.0	1	0	1	0	0	0	0
6739	95.5	InChI=1S/C10H8O/c11-10-7-3-5-8-4-1-2-6-9(8)10/h1-7,11H	1-naphthol	10	8	1	144.16952	7.0	1	1	0	0	0	0	0
6176	-52.5	InChI=1S/C6H12O/c1-5(7)6(2,3)4/h1-4H3	pinacolone	6	12	1	100.15848	1.0	0	0	1	0	0	0	0
6146	25.35	InChI=1S/C4H10O/c1-4(2,3)5/h5H,1-3H3	tert-butyl alcohol, anhydrous	4	10	1	74.1212	0.0	0	1	0	0	0	0	0
6341	-46.25	InChI=1S/C4H8O2/c1-3(2)4(5)6/h3H,1-2H3,(H,5,6)	isobutyric acid	4	8	2	88.10432	1.0	0	0	0	0	1	0	0
6677	15.63	InChI=1S/C9H12O/c1-7(2)8-5-3-4-6-9(8)10/h3-7,10H,1-2H3	2-isopropylphenol	9	12	1	136.19058	4.0	1	1	0	0	0	0	0
6321	-86.65	InChI=1S/C4H8O/c1-3-4(2)5/h3H2,1-2H3	2-butanone	4	8	1	72.10531999999999	1.0	0	0	1	0	0	0	0
6881	18.4	InChI=1S/C9H10O/c1-2-9(10)8-6-4-3-5-7-8/h3-7H,2H2,1H3	propiophenone	9	10	1	134.1747	5.0	1	0	1	0	0	0	0
7016	-39.25	InChI=1S/C5H10O/c1-3-5(6)4-2/h3-4H2,1-2H3	3-pentanone	5	10	1	86.1319	1.0	0	0	1	0	0	0	0